ITEM: TIMESTEP
2000
ITEM: NUMBER OF ATOMS
15208
ITEM: BOX BOUNDS pp pp pp
-2.6652001487242671e-01 4.4444520014871983e+01
-3.8878024323939542e-01 3.8400780243240732e+01
-2.3194481757016699e-01 1.0314794481757400e+02
ITEM: ATOMS id type x y z
10 5 1.98461 2.76841 1.77976
4 2 -0.00975688 1.56959 1.80341
2 5 1.89772 -0.368683 1.40835
8 3 3.86083 1.09533 1.7346
14 1 6.09893 2.49218 1.47832
6 4 6.04492 -0.374077 1.6418
102 2 8.21736 0.965006 1.42955
104 3 10.1684 2.51183 1.52463
100 3 10.1474 -0.238017 1.55486
2188 2 12.2886 1.175 1.43293
2190 3 14.2285 2.58456 1.55768
2186 4 14.3266 -0.33028 1.42325
2237 2 16.3299 1.20102 1.49162
2241 3 18.1584 2.54654 1.2142
2235 4 18.3273 -0.27739 1.47369
2248 1 18.3647 1.18745 3.45637
2239 2 20.2842 1.17035 1.44552
2250 3 20.3917 -0.330566 3.40683
4007 4 22.36 2.3943 1.37009
4032 2 24.6059 1.114 1.37766
4005 4 22.5312 -0.191029 1.57192
4045 3 24.4065 0.00881255 3.45681
4053 3 24.2883 2.48871 3.4495
4030 3 26.6725 -0.194589 1.52143
4036 2 28.4529 1.34462 1.43862
4038 4 26.5082 2.62411 1.65905
4034 3 30.3667 -0.172611 1.81967
4042 4 30.5985 2.82209 1.6448
4128 5 32.6004 1.37805 1.58829
6189 2 34.5386 -0.122723 1.56528
6194 3 36.5149 1.31242 1.51222
6195 4 34.5779 2.7329 1.60911
6192 4 38.6555 -0.0397417 1.55159
6198 2 38.5905 2.70428 1.6305
6265 3 40.5555 1.40898 1.71579
6263 1 42.8318 0.110524 1.44769
6267 4 42.5172 2.68924 1.40319
34 5 2.02953 5.39199 1.72025
12 2 -0.0561899 4.00694 1.58979
11 3 2.12704 3.95307 -0.211251
16 2 4.01979 3.99123 1.80942
38 5 6.12375 5.31038 1.71165
106 2 8.1559 3.70613 1.39599
116 5 10.1653 5.12346 1.44373
118 2 8.22654 6.61741 1.35894
113 2 10.1832 3.92822 3.44834
121 2 10.263 6.59255 3.39213
119 5 8.1853 5.29845 3.40257
2192 2 12.2838 3.84189 1.42543
2202 5 14.2071 5.31038 1.55107
2243 2 16.2485 3.93284 1.56958
2261 2 16.299 6.60455 1.45463
2254 2 18.2647 3.91098 3.40577
2264 3 16.29 5.4271 3.40305
2259 3 18.3718 5.24781 1.41972
2245 5 20.3088 3.88072 1.36875
2263 2 20.3299 6.61664 1.44774
4013 4 22.4881 5.28274 1.21323
4040 2 24.3434 3.73356 1.45879
4069 4 24.4401 5.43734 3.09985
4012 2 22.3322 4.03622 3.35239
4016 2 22.3038 6.56353 3.33485
4044 5 28.5453 4.13562 1.41217
4062 3 26.3765 5.33189 1.30128
4066 4 30.6679 5.57904 1.65404
4130 5 32.6311 4.24108 1.68311
6200 5 36.6097 4.03866 1.42312
6213 4 34.5906 5.53431 1.65114
6216 2 38.6954 5.37659 1.55989
6269 3 40.6218 4.0075 1.60513
6279 1 42.6584 5.63786 1.6013
36 2 0.0452748 6.87472 1.54485
86 4 2.14048 8.09113 1.49402
548 3 0.213177 9.5533 1.52095
40 2 4.20651 6.75179 1.55431
88 4 6.37627 8.10628 1.56334
550 1 4.14271 9.54433 1.36877
91 5 4.26495 8.17861 3.41245
561 3 6.31929 9.51983 3.23964
142 1 10.176 8.02038 1.44478
646 5 8.26046 9.53158 1.30254
651 5 10.2008 9.49323 3.34251
2204 2 12.145 6.67031 1.54801
2228 4 14.3078 7.9616 1.60476
2641 5 12.2235 9.33339 1.41239
2298 4 18.3173 7.9943 1.41455
2690 3 16.1553 9.37206 1.46917
2698 3 18.3822 9.40119 3.45116
2691 1 20.3665 9.52971 1.5075
2302 5 20.433 8.03756 3.39031
4064 2 24.3968 6.82259 0.983071
4026 5 22.2762 7.97595 1.28669
4577 4 24.266 9.46968 1.39349
4117 5 24.3242 7.96491 3.19905
4068 2 28.5829 6.93496 1.62392
4114 5 26.4812 8.23174 1.64392
4579 4 28.399 9.73339 1.67502
4136 3 32.5353 6.79235 1.60029
4116 5 30.5478 8.17666 1.61944
4674 4 32.4926 9.62784 1.40806
6218 3 36.614 6.6757 1.46804
6252 5 34.5288 8.30397 1.70722
6646 2 36.6241 9.63593 1.32712
6256 5 36.6392 8.06681 3.41863
6254 4 38.5157 8.19407 1.56146
6719 2 40.5476 9.58215 1.61632
6281 3 40.5433 6.86266 1.48537
6305 5 42.8022 8.23617 1.64421
552 4 2.17575 10.859 1.58818
554 5 0.160708 12.2723 1.68796
572 2 2.19855 13.6416 1.49947
556 4 6.30182 10.9831 1.19244
558 3 4.39224 12.2741 1.45228
569 3 6.24466 12.2201 3.36532
567 2 4.13986 11.0341 3.43638
583 2 4.17711 13.6971 3.45593
648 4 10.303 10.819 1.35511
650 3 8.30456 12.1927 1.30957
653 4 8.23789 10.851 3.35477
658 2 10.3034 13.6106 1.20165
655 5 10.3485 12.2005 3.19509
661 2 8.29123 13.6756 3.28481
2643 4 14.2582 10.6617 1.53556
2645 3 12.2821 12.1313 1.44295
2653 1 14.2789 13.6419 1.45804
2656 2 12.2698 13.6938 3.41892
2648 2 12.3569 10.8008 3.40151
2693 2 18.125 10.7432 1.33981
2695 3 16.2683 12.1309 1.53887
2703 4 18.244 12.2554 3.37241
2697 1 20.1152 12.2723 1.47902
4552 5 22.2918 10.9128 1.36078
4583 3 24.3777 12.4413 1.61403
4556 3 22.3316 12.2798 3.45709
4557 5 22.2735 13.6228 1.17357
4592 5 24.1816 10.8834 3.36765
4581 2 26.301 11.0354 1.65991
4587 1 28.4699 12.1759 1.91049
4585 5 30.494 11.0207 1.6617
4676 3 32.5528 12.4344 1.38823
4605 5 30.3631 13.6349 1.71666
4678 5 32.5402 10.9537 3.3613
6647 5 34.6197 10.9186 1.71964
6652 3 36.668 12.4411 1.38357
6658 5 36.7685 10.9785 3.30048
6662 4 34.5907 13.6978 1.81141
6670 5 36.7026 13.6802 3.29645
6648 3 34.7522 12.5872 0.0115632
6650 4 38.5181 11.0213 1.66724
6723 3 40.598 12.2179 1.61971
6721 1 42.7394 10.8414 1.70184
6731 1 42.9625 13.6773 1.73864
574 3 0.256987 15.0254 1.60464
618 5 2.22641 16.6073 1.6162
576 4 6.48372 13.7597 1.2564
578 3 4.38773 15.0325 1.46393
622 5 6.33979 16.4465 1.32803
585 3 6.23372 14.964 3.41178
660 3 8.3609 15.1294 1.43692
681 4 10.2853 16.3769 1.28085
2655 3 12.1315 15.0703 1.29276
2676 4 14.157 16.5922 1.3381
2658 3 14.118 15.1748 3.4415
2708 5 18.0616 13.8489 1.41775
2710 3 16.0567 15.2437 1.28912
2747 4 16.2227 16.5428 3.31869
2742 2 18.1391 16.4431 1.37869
2713 5 16.317 13.7374 3.29342
2715 3 18.3875 15.1666 3.40187
2712 1 20.2107 15.1932 1.44753
2751 4 20.5131 16.5847 3.4274
4569 4 22.3898 16.569 1.44833
4603 3 24.479 15.1274 1.46661
4560 1 22.6065 14.9873 3.3718
4601 5 26.4683 13.7657 1.91735
4607 1 28.4997 15.3199 1.69343
4647 4 26.5258 16.5992 1.60505
4651 4 30.7948 16.4175 1.62147
4681 2 32.4978 14.8921 1.4981
6667 2 36.6818 15.0179 1.27808
6697 1 34.5198 16.2877 1.78318
6665 5 38.6697 13.7522 1.41134
6700 4 38.6316 16.4026 1.61249
6733 3 40.787 15.2922 1.6782
6754 4 42.8216 16.4264 1.58771
620 2 0.269685 17.8095 1.50237
1094 4 2.15334 19.2845 1.58404
1096 1 0.00508628 20.5376 1.52665
624 1 4.31351 17.9485 1.50398
1098 3 6.20575 19.6196 1.53724
1100 2 3.97839 20.7026 1.59738
683 1 8.27683 17.9423 1.39327
1192 4 10.3642 19.4273 1.5031
686 5 10.0653 17.9179 3.40877
2678 2 12.3066 17.995 1.42029
3096 4 14.256 19.3668 1.22474
2681 2 14.1665 18.0135 3.30251
3101 3 14.2398 20.7653 3.27991
3099 4 12.1549 19.3862 3.24727
2744 5 16.2344 17.9683 1.21566
3145 2 18.2331 19.2011 1.24144
3150 1 16.3621 19.2098 3.30436
3152 3 18.4248 20.5674 3.26642
2749 5 18.3828 17.9575 3.32556
2746 5 20.3538 18.0525 1.39362
3149 3 20.1203 20.5772 1.38265
5097 4 22.3221 19.3752 1.49797
4649 5 24.3856 17.9235 1.40987
5124 5 24.6305 20.5343 1.35989
5100 3 22.5158 20.6043 3.44786
4653 5 28.7238 17.8091 1.66721
5122 1 26.6085 19.0473 1.3842
5128 5 28.4923 20.5292 1.44986
4692 5 32.6914 17.7639 1.58086
5126 4 30.648 19.1758 1.68447
5220 2 32.5495 20.3318 1.5286
6702 3 36.7008 17.5989 1.69055
7099 4 34.6873 19.0176 1.68708
7104 3 36.5375 20.675 1.48219
7102 2 38.5703 19.1721 1.70831
7175 5 40.7138 20.4473 1.61528
6756 5 40.5769 17.8557 1.65448
7173 4 42.6398 19.1685 1.62628
1110 3 2.07916 22.0113 1.5136
1112 2 0.0316745 23.361 1.51904
1119 2 1.99003 23.3055 3.42769
1114 3 6.22563 21.9302 1.29245
1116 2 4.02268 23.3319 1.51896
1107 4 6.22957 20.7823 3.44299
1194 2 8.34152 20.8126 1.43896
1200 1 10.2674 22.2997 1.32337
1202 2 8.1832 23.4939 1.29012
1197 2 10.347 20.8766 3.42081
1205 2 10.399 23.6328 3.35833
3098 5 12.2831 20.9724 1.29378
3104 4 14.4154 22.206 1.30353
3106 2 12.4255 23.5864 1.39568
3109 2 14.3502 23.4479 3.42865
3107 4 12.3288 22.1224 3.42686
3147 5 16.2711 20.7771 1.2567
3159 3 16.204 23.361 1.38794
3157 4 18.3438 22.0309 1.32539
3162 4 16.4215 22.1065 3.44729
3161 3 20.3395 23.3904 1.26958
3166 2 20.3403 22.0295 3.36035
5101 4 22.2281 22.025 1.20395
5140 2 24.5211 23.3828 1.40152
5145 4 24.4134 22.097 3.41377
5138 1 26.5503 21.9213 1.38207
5144 2 28.6996 23.2671 1.45123
5142 4 30.655 21.7855 1.35327
5224 2 32.5947 23.2268 1.68138
5151 2 30.5772 23.265 3.33143
7111 4 34.3775 21.71 1.64984
7116 3 36.5526 23.0361 1.57169
7114 1 38.6961 21.9601 1.65567
7183 3 40.8566 23.3962 1.6035
7181 4 42.6547 21.9359 1.78933
1150 4 2.09646 24.6571 1.4136
1158 4 1.88287 27.5069 1.55224
1152 3 0.165919 26.0886 1.30438
1154 5 6.26782 24.6127 1.39598
1156 3 4.10115 26.0843 1.28613
1160 5 6.14112 27.2483 1.27262
1220 4 10.3204 24.9336 1.18236
1222 3 8.28283 26.1475 1.46607
1224 5 10.2012 27.6895 1.41515
1227 1 10.3065 26.2278 3.44158
3126 3 12.1714 26.2959 1.31187
3124 5 14.4588 25.061 1.5435
3128 2 14.2488 27.646 1.31738
3133 5 12.3735 27.753 3.38918
3189 4 16.4306 26.3575 1.48955
3187 1 18.3367 24.9338 1.3075
3195 5 16.3311 24.8017 3.41193
3197 4 18.28 26.3611 3.44615
3193 5 18.4888 27.7461 1.33821
3191 4 20.4302 26.1869 1.12722
3199 5 20.189 24.8174 3.2425
3203 1 20.3729 27.3973 3.16327
5111 1 22.5595 24.7408 1.34049
5180 4 24.8607 26.2703 1.18978
5113 1 22.6507 27.4929 1.49987
5197 5 24.4506 27.5107 3.26007
5189 5 24.3209 24.7615 3.31225
5178 5 26.7435 24.6936 1.33301
5184 3 28.7418 26.1552 1.29913
5186 2 26.7753 27.5061 1.56398
5193 1 28.5654 24.6935 3.41868
5182 5 30.8306 24.814 1.47457
5234 4 32.9374 26.2492 1.42028
5188 5 30.8001 27.5513 1.54339
7141 5 34.808 24.6283 1.36726
7146 2 36.9129 26.2872 1.16692
7147 5 35.0737 27.7799 1.4625
7152 5 36.577 24.8814 3.25542
7151 2 34.3233 26.092 3.40226
7144 5 38.5629 24.4758 1.09324
7154 1 38.539 26.266 3.15591
7203 2 40.4643 25.9641 1.51673
7201 5 42.8769 24.9433 1.51075
7205 1 42.5309 27.3512 1.71236
1648 2 1.86081 30.2566 1.6348
1640 3 -0.077642 28.8971 1.55572
1642 3 3.91493 28.7436 1.45435
1652 1 5.97078 30.2745 1.50853
1738 3 8.12964 28.8536 1.38421
1742 5 10.2371 30.2437 1.42193
1745 4 7.98785 30.3969 3.40108
3551 3 12.3483 29.0099 1.37665
3555 5 14.4497 30.4575 1.26411
3552 3 14.4259 28.9322 3.37815
3201 2 16.5604 27.8908 3.45916
3600 3 16.4198 29.0597 1.28618
3611 5 16.4401 30.4484 3.17387
3606 2 18.4557 30.4469 1.27751
3602 4 18.4768 29.1928 3.38225
3601 3 20.5555 28.9945 1.3095
3615 2 20.4823 30.3692 3.38394
5645 2 22.577 30.2894 1.38314
5669 3 24.7024 28.948 1.16276
5684 5 24.4736 30.1664 3.30118
5671 4 28.7888 28.9205 1.59378
5677 5 26.7021 30.222 1.34515
5681 5 30.7893 30.1045 1.54012
5766 4 32.9389 28.9291 1.54973
7560 5 35.1789 30.4552 1.49052
7556 3 37.3831 28.8893 1.38867
7149 5 40.0711 28.5376 1.58849
7633 1 42.3658 30.2152 1.45369
1682 4 1.76558 33.0994 1.75389
1650 3 -0.188075 31.6396 1.55767
1654 3 3.77576 31.7445 1.84831
1686 5 5.91678 32.9952 1.3162
1688 2 3.859 34.3424 1.92007
1744 3 8.20821 31.7407 1.42798
1759 4 10.106 33.0441 1.44598
1761 2 8.06901 34.4292 1.381
1766 5 8.09165 33.0487 3.38858
3557 1 12.2092 31.7222 1.50345
3572 4 14.2782 33.0315 1.46009
3574 2 12.1619 34.354 1.42585
3608 3 16.4809 31.9216 1.19324
3633 5 16.5133 34.4679 1.12725
3642 4 16.2688 33.0773 3.20909
3613 3 18.3396 31.7436 3.40836
3631 4 18.5285 32.9391 1.36846
3610 3 20.5523 31.7474 1.42832
3635 2 20.4442 34.4071 1.3519
3646 4 20.3746 33.0414 3.45577
5654 4 22.6368 32.9853 1.4633
5679 3 24.63 31.777 1.37541
5713 2 24.5298 34.3829 1.58435
5726 4 24.3224 33.0247 3.43829
5659 5 22.3071 34.4313 3.44265
5683 3 28.7047 31.5503 1.49678
5711 4 26.665 33.0097 1.51659
5717 5 28.6439 34.3455 1.91886
5715 4 30.8046 33.0482 1.55508
5769 3 32.8344 31.5666 1.58334
5777 5 32.8921 34.4589 1.63542
7565 2 35.1913 32.8696 1.26128
7586 4 34.7138 33.0359 1.09997
7600 4 36.7527 32.9747 2.9989
7599 5 34.632 34.3995 3.41957
7635 2 40.1623 31.5709 1.49736
7589 4 37.9586 32.7571 0.843913
7652 5 40.0435 34.1804 1.23423
7602 5 38.4883 34.5976 3.22098
1684 2 44.2988 34.4899 1.70916
7650 4 42.3754 32.8865 1.58145
1690 5 1.83417 36.0229 1.65465
17 5 -0.0428776 38.3978 3.28779
1694 5 6.05979 35.6664 1.44555
1696 2 4.06928 37.1473 1.77538
1693 4 3.9284 35.7478 -0.171943
1763 4 10.1749 35.6587 1.49716
1765 2 8.08382 37.115 1.4482
3576 4 14.1929 35.6658 1.58438
3578 2 12.213 37.0989 1.37155
3639 3 16.157 37.1119 1.38969
3648 4 16.2755 35.741 3.41042
3637 1 18.5456 35.9227 1.5081
3641 2 20.7521 37.1872 1.42857
3652 4 20.3757 35.8676 3.42808
5656 4 22.5391 35.8109 1.57567
5721 5 24.5358 37.1277 1.55274
5719 3 26.5926 35.6387 1.48654
5725 2 28.4855 36.895 1.62764
5722 4 28.8866 35.6298 -0.210186
5723 3 30.7129 35.7166 1.70643
5779 5 32.5649 37.3663 1.66386
7591 5 36.6276 34.9134 1.49402
7592 4 34.6294 36.0998 1.53058
7597 3 36.6755 37.5257 1.64213
7595 4 38.6834 36.2036 1.43849
7661 4 40.5663 35.7866 3.44579
7656 5 40.7856 37.4255 1.58419
1692 2 44.2419 36.8872 1.53788
7654 4 42.2524 35.6299 1.43896
19 1 1.96718 1.09467 3.54274
18 5 2.19198 -0.130972 5.73881
26 5 2.0055 2.60854 5.94697
20 2 -0.0616196 1.08977 5.70724
25 5 0.233624 2.79529 3.82624
29 5 3.94249 2.28427 3.67709
21 5 4.07103 -0.334818 3.86476
23 2 6.08082 1.09349 3.61162
22 5 6.11033 -0.336684 5.72284
24 2 4.19912 1.13375 5.81645
30 4 6.07098 2.41889 5.62465
109 2 10.2182 1.0862 3.49178
111 1 8.16589 2.57194 3.5392
110 2 8.10832 1.03796 5.5967
112 1 10.1378 2.56037 5.52242
108 4 10.2511 -0.309363 5.46013
107 5 8.1399 -0.265938 3.59168
2195 2 14.355 1.19606 3.51916
2193 1 12.3059 -0.197828 3.51419
2197 5 12.2879 2.61379 3.49128
2196 3 12.2435 1.05948 5.56749
2198 5 14.071 2.46452 5.53767
2194 4 14.1026 -0.376837 5.5066
2252 3 16.0781 2.56774 3.59229
2249 1 16.1405 1.12068 5.53198
2247 4 18.3155 -0.177674 5.51842
2246 4 16.2238 -0.255761 3.50666
2253 3 18.29 2.55843 5.55296
2256 4 20.2974 2.55933 3.51261
2251 5 20.3538 1.14508 5.54919
4010 2 22.2668 1.1661 3.69401
4009 3 22.5298 -0.158352 5.75771
4011 4 22.4608 2.61763 5.62469
4048 5 24.6182 1.15591 5.526
4057 3 28.3557 2.61199 3.59559
4047 2 26.4934 1.11023 3.54602
4049 3 28.6472 -0.0440693 3.58836
4046 4 26.5522 -0.154746 5.64056
4052 5 28.5013 1.32974 5.59582
4054 1 26.4333 2.67006 5.63138
4051 5 30.4726 1.4035 3.63175
4131 4 32.4722 -0.0979726 3.58358
4133 4 32.4393 2.65612 3.73283
4058 4 30.5524 2.74323 5.75992
4132 5 32.5722 1.32182 5.74936
4050 3 30.533 -0.0666357 5.67098
6203 4 36.3909 -0.0196459 3.56703
6201 2 34.5867 -0.185523 5.58467
6202 3 34.3161 1.34191 3.63461
6206 3 36.5301 1.25694 5.69745
6207 4 34.6089 2.68748 5.71801
6209 4 36.5698 2.66028 3.58901
6204 4 38.8131 -0.0569444 5.73915
6205 3 38.696 1.26598 3.67715
6210 2 38.5514 2.69844 5.66491
6273 3 40.6566 1.31236 5.66848
6274 4 40.6786 2.82978 3.69518
6270 4 40.7306 -0.0206303 3.56241
6271 4 42.6451 -0.277729 5.60348
6272 3 42.6972 1.27761 3.73542
6275 4 42.702 2.69551 5.73716
41 5 0.0740507 5.43647 3.70794
27 2 2.35201 4.08564 3.79528
42 3 2.22057 5.35964 5.85571
28 2 -0.0934054 4.2503 5.84274
45 3 4.16068 5.4898 3.66969
31 2 5.86527 3.85437 3.5722
32 2 4.12119 3.8183 5.5174
46 4 6.04511 5.19397 5.56552
114 2 8.04542 3.95223 5.48062
120 5 10.0717 5.22492 5.39119
2205 5 12.2364 5.21412 3.55341
2207 2 14.1456 6.62875 3.55756
2199 2 14.3056 3.95944 3.63981
2200 2 12.1648 4.00026 5.58007
2206 3 14.2396 5.25442 5.56499
2208 2 12.262 6.61461 5.59214
2266 2 18.3568 6.58559 3.54433
2255 2 16.2282 3.79121 5.59083
2267 2 16.2254 6.58119 5.46929
2265 3 18.1384 5.29276 5.52945
2268 4 20.2725 5.1204 3.47236
2257 2 20.2701 3.9656 5.57926
4015 1 22.3471 5.34806 5.72569
4056 5 24.5396 4.13196 5.32758
4055 5 26.2877 4.13701 3.58849
4073 4 28.391 5.39576 3.5115
4060 5 28.5557 4.10848 5.72734
4070 3 26.4245 5.5994 5.80854
4059 2 30.3948 4.12886 3.66551
4074 4 30.6106 5.43618 5.69025
4134 3 32.6108 4.1656 5.7185
4137 4 32.5241 5.45234 3.75477
6221 4 36.5869 5.36595 3.54725
6208 5 34.5808 4.07297 3.56907
6212 3 36.4348 4.12535 5.64055
6219 4 34.5836 5.5809 5.80127
6211 3 38.5439 4.12331 3.63387
6222 2 38.5378 5.30598 5.73642
6277 3 40.6242 3.98632 5.75373
6282 1 40.8536 5.53438 3.74553
6276 3 42.8485 3.92774 3.60759
6283 4 42.5327 5.51302 5.7502
559 3 2.15163 9.44151 3.56905
43 2 2.23763 6.7821 3.84272
44 1 0.0517115 6.86932 5.81281
89 4 0.264763 8.11484 3.54933
90 5 2.16386 8.32374 5.67614
560 3 0.0541099 9.46774 5.6975
47 2 6.23422 6.73369 3.6201
48 2 4.17592 6.78623 5.46327
92 5 6.19169 8.08422 5.62708
562 3 4.10941 9.52624 5.43721
143 4 8.26665 8.0695 3.50649
122 2 8.21788 6.74342 5.48844
144 4 10.2371 7.96404 5.35996
652 1 8.25454 9.47766 5.37944
2646 3 14.204 9.39382 3.54302
2229 4 12.213 7.92045 3.47697
2230 4 14.2175 7.86688 5.61152
2647 5 12.2062 9.30918 5.41766
2300 5 16.4149 8.07849 3.6118
2699 3 16.1112 9.47362 5.71464
2301 5 18.2589 8.0233 5.59822
2269 2 20.2213 6.74435 5.50185
2700 3 20.3585 9.3765 5.53195
4554 3 22.3011 9.29944 3.54783
4072 2 24.4597 6.77665 5.21492
4027 5 22.4213 7.97612 5.78798
4589 4 24.4445 9.34806 5.25012
4076 2 28.6246 6.73644 5.53607
4071 2 26.2884 6.77492 3.62042
4119 5 28.3589 8.05424 3.64383
4588 3 26.3006 9.46001 3.67155
4118 5 26.5412 8.13367 5.88778
4591 4 28.3228 9.73935 5.21355
4075 3 30.4248 6.79248 3.70687
4149 1 32.6371 8.21792 3.55067
4590 4 30.4446 9.54133 3.62372
4138 2 32.5306 6.92893 5.7452
4120 5 30.4453 8.31939 5.69286
4677 4 32.5328 9.5215 5.59464
6220 3 34.4801 6.73158 3.86551
6224 3 36.678 6.78203 5.71643
6255 1 34.6517 8.33251 5.93286
6653 4 34.8163 9.7603 3.83069
6655 2 36.6044 9.62629 5.30016
6654 2 38.6958 9.54495 3.47213
6223 3 38.656 6.79948 3.71295
6257 4 38.637 8.35968 5.64274
6285 3 40.4364 7.0015 5.75801
6725 2 40.6426 9.52198 5.62805
6306 4 40.768 8.1175 3.53817
6284 3 42.8466 7.00374 3.6895
6307 5 42.6237 8.18508 5.79366
6724 2 42.8216 9.60236 3.78992
565 3 1.98292 12.2606 3.48524
563 4 0.1037 10.7807 3.661
564 2 2.1808 10.8299 5.63114
566 3 0.0539868 12.2077 5.51419
580 5 2.08793 13.7082 5.52915
568 5 6.2266 10.8488 5.44318
570 3 4.14292 12.3586 5.52138
584 2 6.14884 13.5036 5.39396
654 4 10.3536 10.9424 5.41329
656 3 8.3138 12.2746 5.21567
662 2 10.2629 13.6161 5.33611
2650 3 14.2889 12.2321 3.6086
2649 2 14.2963 10.8941 5.46165
2651 5 12.3955 12.4 5.38893
2701 2 16.2532 10.8558 3.53208
2704 3 16.3561 12.4115 5.5034
2702 1 18.3956 10.8922 5.49039
2705 2 20.3655 10.8326 3.5864
2706 3 20.501 12.3012 5.60614
2714 5 18.4736 13.6614 5.34885
4555 1 22.4872 10.8543 5.69076
4595 3 24.5715 12.1246 5.56059
4559 4 22.4647 13.7011 5.47973
4593 5 26.3356 10.6887 5.82468
4596 2 28.4129 10.6585 4.07271
4594 3 26.541 12.0578 3.76255
4599 1 28.3429 12.4015 5.69614
4597 5 30.4441 10.8888 5.8627
4598 4 30.4192 12.209 3.8089
4679 2 32.42 12.3055 5.4515
4613 5 30.4607 13.5937 5.74608
6656 5 34.4883 10.9621 6.12594
6657 3 34.5403 12.2325 3.89089
6661 2 36.5848 12.2237 5.31421
6668 5 34.5593 13.543 6.0041
6660 2 38.8161 12.4227 3.61334
6659 5 38.6459 11.0678 5.6517
6729 4 40.6117 12.5317 5.5287
6671 5 38.4732 13.6508 5.64484
6726 5 40.7216 10.8637 3.66929
6728 2 42.7754 12.2827 3.69399
6727 1 42.5764 10.947 5.82653
6735 5 42.8212 13.573 5.64028
579 4 0.102168 13.7374 3.61851
625 5 0.162495 16.4444 3.54558
581 1 2.15695 15.1385 3.6004
626 4 2.15186 16.5076 5.83811
582 3 0.0827317 15.1289 5.55689
629 4 4.28057 16.5151 3.48864
586 3 4.18483 15.0857 5.70596
630 4 6.12583 16.3726 5.57026
663 3 10.2109 15.147 3.50215
684 4 8.13139 16.5321 3.59724
664 5 8.25942 14.8921 5.46536
685 4 10.2163 16.4517 5.40707
2679 4 12.1551 16.3592 3.50532
2657 2 14.4678 13.9216 5.52054
2659 3 12.3346 15.1016 5.56932
2680 1 14.4894 16.7711 5.45873
2716 3 16.4719 15.2414 5.4283
2717 2 20.3555 13.8022 3.57519
2748 4 18.4851 16.5897 5.45494
2718 3 20.3939 15.2375 5.49326
4608 5 24.5478 13.7259 3.5838
4654 4 24.5383 16.6256 3.58677
4571 2 22.4381 16.5763 5.53682
4611 3 24.4035 15.2034 5.5998
4612 5 28.4903 13.9065 3.7708
4609 5 26.3486 13.7969 5.48541
4610 2 26.4144 15.435 3.66614
4615 3 28.4565 15.1927 5.72905
4655 4 26.4349 16.5151 5.73646
4658 4 28.585 16.6711 3.76443
4682 1 32.5167 13.8191 3.60811
4693 4 32.6509 16.3831 3.77499
4614 3 30.4789 15.1106 3.67836
4659 4 30.4918 16.3312 5.60211
4683 2 32.5315 15.1366 5.77197
6705 4 36.6328 16.2094 3.58708
6669 2 34.6429 15.0323 3.94897
6673 3 36.5237 14.8961 5.51537
6703 4 34.6702 16.2251 6.0308
6672 2 38.7104 15.0775 3.613
6706 4 38.5874 16.1814 5.69804
6737 2 40.5542 15.0143 5.59512
6757 4 40.6778 16.3972 3.72375
6734 5 40.8308 13.7718 3.46303
6736 2 42.8497 15.0588 3.6065
6758 4 42.6088 16.3838 5.69127
1101 5 0.0150354 19.1372 3.63261
627 3 2.08256 17.8759 3.71642
1102 5 1.80369 19.2211 5.81967
1104 2 -0.208759 20.5654 5.65804
628 2 -0.205038 17.7948 5.6065
1103 1 1.96567 20.6261 3.75322
631 1 6.29893 17.9853 3.47876
1105 5 4.0932 19.1645 3.49336
632 2 4.08868 17.8484 5.57753
1106 3 6.12977 19.3917 5.59598
1108 2 3.95642 20.4967 5.68062
1195 3 8.24375 19.6639 3.5679
687 2 8.17686 17.937 5.47728
1196 3 10.215 19.2889 5.44291
1198 2 8.1899 20.721 5.54945
2682 2 12.2005 17.9505 5.41214
3100 4 14.306 19.3418 5.4412
3102 2 12.2219 20.6201 5.34242
2750 5 16.4049 17.9161 5.37266
3151 4 18.3337 19.2767 5.45804
3153 3 16.3794 20.623 5.49875
3154 2 20.4799 19.338 3.54663
2752 5 20.4388 17.8782 5.63723
3155 3 20.4108 20.6274 5.43001
4572 5 22.5135 17.8715 3.56122
5129 4 24.436 19.22 3.52096
4657 5 24.4898 17.9046 5.66873
5099 4 22.4564 19.3598 5.47247
5132 2 24.4093 20.6872 5.37193
4656 5 26.5708 17.9362 3.78203
4661 5 28.5274 18.0717 5.8569
5130 3 26.4993 19.3968 5.64341
5133 4 28.7136 19.3035 3.72902
5136 2 28.6352 20.7485 5.60564
5131 5 26.4301 20.583 3.47387
5135 2 30.6279 20.6578 3.6178
4660 5 30.7372 17.7227 3.65001
4694 5 32.3463 17.7847 5.78533
5134 4 30.62 19.3086 5.57328
5221 4 32.6203 19.2 3.67327
5222 2 32.6234 20.5249 5.78647
7107 2 36.6247 19.125 3.56037
6704 5 34.6437 17.6891 3.7144
6708 5 36.6535 17.6738 5.64925
7105 4 34.4698 19.0345 5.65286
7106 3 34.62 20.3864 3.60945
7110 3 36.4927 20.3145 5.65525
7109 3 38.7378 20.4469 3.66482
6707 5 38.6775 17.7906 3.76432
7108 4 38.5171 19.0842 5.80566
6760 5 40.4993 17.5951 5.79458
7179 3 40.5856 20.4386 5.72935
7176 4 40.5746 19.2099 3.7783
7178 3 42.5457 20.5109 3.59895
6759 3 42.677 17.7475 3.72113
7177 4 42.5255 19.0994 5.75501
1118 4 1.99898 22.0598 5.72836
1117 5 -0.0583161 21.9701 3.60672
1120 2 -0.12322 23.2516 5.70941
1123 2 5.97954 23.3488 3.56382
1121 3 4.12956 21.9847 3.58396
1122 3 6.08778 22.1116 5.59508
1124 2 3.83952 23.4152 5.55083
1203 1 8.31405 22.346 3.49464
1204 4 10.2462 22.1185 5.48661
1206 2 8.15422 23.4702 5.82309
3108 1 14.2489 22.0154 5.62818
3110 3 12.2446 23.7113 5.47324
3164 3 18.3057 23.2499 3.50127
3165 2 16.3062 23.513 5.43057
3163 4 18.4932 22.1093 5.43352
3167 3 20.4887 23.5948 5.24832
5104 3 22.3199 23.3773 3.51162
5103 4 22.39 22.0421 5.51279
5148 2 24.5306 23.4215 5.27679
5146 4 26.4796 22.0537 5.76579
5149 4 28.4981 22.0591 3.55265
5147 3 26.3772 23.4544 3.58734
5152 2 28.5771 23.4349 5.54316
5225 5 32.776 21.8154 3.62229
5150 4 30.7435 22.0497 5.68713
5226 2 32.8605 23.4207 5.66741
7118 1 34.6905 23.3417 3.62157
7119 2 36.8324 21.7793 3.66204
7117 4 34.5645 21.9009 5.66966
7122 3 36.6187 23.2557 5.52989
7121 3 38.4642 23.485 3.55177
7120 5 38.4762 21.7655 5.6135
7187 3 40.567 23.2313 5.75329
7184 4 40.4974 22.0151 3.66356
7186 3 42.7665 23.3644 3.66826
7185 4 42.5247 21.9427 5.60317
1169 5 -0.02362 27.4109 3.54165
1163 3 1.9514 26.0552 3.46807
1161 4 -0.0276325 24.748 3.6272
1162 5 1.92058 24.7977 5.60472
1164 3 -0.143377 26.103 5.71169
1170 5 2.01148 27.4594 5.53704
1167 1 6.11146 26.0969 3.50062
1165 5 3.88463 24.7818 3.54757
1171 4 3.90855 27.503 3.50201
1166 5 6.01535 24.5934 5.65998
1168 3 4.1508 26.0009 5.61928
1172 5 6.142 27.4611 5.64101
1225 5 8.31031 24.8283 3.55361
1229 5 8.21623 27.6146 3.66408
1226 5 10.2426 24.7812 5.3944
1228 4 8.07653 26.0672 5.76919
1230 2 10.1124 27.4132 5.61711
3131 4 14.4739 26.3743 3.4724
3129 5 12.3867 25.1161 3.48683
3130 5 14.3488 24.9261 5.45933
3132 4 12.2906 26.2928 5.55316
3134 2 14.1818 27.7344 5.3975
3198 3 16.3452 26.3578 5.47142
3196 5 18.2799 24.8857 5.37198
3202 5 18.3812 27.6339 5.44237
3200 4 20.3462 26.1027 5.30544
5115 2 22.4123 26.0991 3.48749
5114 5 22.5598 24.9212 5.54317
5192 3 24.6467 26.1284 5.2894
5116 1 22.4402 27.5441 5.55312
5191 4 26.4585 26.1081 3.5168
5199 5 28.3833 27.5767 3.56387
5190 5 26.6017 24.8158 5.72413
5196 4 28.7621 26.1581 5.51903
5198 5 26.7267 27.5089 5.64112
5238 5 32.491 27.5186 3.62944
5236 3 32.4179 24.7847 3.58953
5195 4 30.518 26.2683 3.48659
5194 5 30.7134 24.7472 5.51202
5237 1 32.8066 26.1584 5.75195
5200 5 30.8586 27.6795 5.73549
7157 5 36.5244 27.4648 3.51545
7150 5 34.8053 24.9917 5.32936
7156 4 34.917 27.5358 5.62084
7155 2 37.1202 25.6836 5.47729
7153 4 38.6985 24.8929 5.51026
7158 5 38.6668 27.5462 5.7644
7209 2 40.6934 26.1687 5.8437
7206 5 40.5519 24.758 3.75738
7210 5 40.7739 27.478 3.60285
7208 2 42.7318 26.0646 3.69714
7207 1 42.6399 24.658 5.81598
7211 4 42.6223 27.5599 5.62617
1643 3 1.99114 28.8625 3.57597
1655 4 0.0173975 30.3435 3.58935
1656 4 1.92424 30.3662 5.71657
1644 3 0.0224467 28.9464 5.62032
1659 4 3.98493 30.2471 3.52166
1645 3 5.99906 28.8887 3.59335
1646 3 4.04242 28.832 5.61407
1660 4 5.98599 30.3617 5.70389
1739 3 10.182 29.0615 3.53281
1740 3 8.14507 28.9464 5.68854
1746 2 10.1776 30.4163 5.66233
3558 5 12.2901 30.2966 3.59623
3553 3 12.2215 28.997 5.80917
3559 5 14.2054 30.3458 5.7363
3603 4 16.2837 29.0329 5.45088
3612 5 18.3432 30.3843 5.48929
3604 4 20.4372 29.0527 5.40305
5644 3 22.4316 29.0499 3.59615
5647 2 22.4633 30.3844 5.52859
5673 4 24.5544 28.8309 5.52866
5688 5 28.2866 30.3662 3.52464
5672 4 26.3123 28.8329 3.59835
5675 4 28.7838 29.0513 5.64308
5685 5 26.6108 30.2183 5.672
5674 4 30.4738 29.0164 3.7414
5770 5 32.5874 30.3198 3.62952
5689 5 30.8989 30.3261 5.8771
5767 3 32.9515 28.8565 5.60217
7568 5 36.5756 30.3495 3.47019
7557 3 34.6127 28.9223 3.70901
7559 2 36.727 29.0399 5.63677
7566 5 34.789 30.4549 5.61371
7558 2 38.5558 28.8757 3.46086
7629 4 38.7399 29.046 3.9138
7569 3 38.8143 30.3372 5.67879
7636 5 40.6913 30.266 3.47707
7631 2 40.8083 29.0122 5.47751
7630 2 42.7921 28.9056 3.62491
7637 5 42.7724 30.4111 5.66326
1699 2 2.04187 34.5599 3.79816
1657 3 1.86724 31.6478 3.62223
1698 5 2.06332 33.1025 5.70934
1658 3 0.0851022 31.7922 5.62408
1697 5 -0.111586 33.2561 3.62162
1700 2 -0.0906594 34.5243 5.75095
1703 2 5.99052 34.4139 3.63744
1661 3 6.04951 31.7591 3.56738
1662 3 4.00575 31.6609 5.7392
1701 5 3.90534 33.0692 3.85033
1702 5 5.95507 33.1451 5.68444
1704 2 4.07599 34.4156 5.79564
1747 3 10.2117 31.752 3.52445
1768 2 10.1799 34.4009 3.60891
1748 1 8.13063 31.6899 5.47326
1767 4 10.2096 33.0473 5.59772
1769 2 8.19417 34.4272 5.45797
3560 3 14.254 31.8096 3.50065
3581 5 14.2141 34.3455 3.54563
3579 4 12.2295 32.931 3.63636
3561 3 12.1853 31.6889 5.68226
3580 2 14.3656 33.156 5.67573
3582 5 12.1404 34.3385 5.54803
3644 5 18.3589 34.3074 3.57445
3614 3 16.2778 31.728 5.29897
3645 5 16.4696 34.3678 5.42386
3643 4 18.4391 32.9322 5.62207
3616 3 20.4509 31.6914 5.49071
3647 5 20.2466 34.5021 5.45598
5648 3 22.4562 31.8026 3.56134
5658 4 22.3596 33.0954 5.66238
5687 3 24.4871 31.6474 5.51344
5729 2 24.4843 34.3239 5.43068
5728 5 26.5422 34.464 3.63575
5686 1 26.3423 31.6559 3.58592
5730 2 28.5043 32.9238 3.72372
5691 3 28.6384 31.5847 5.68507
5727 4 26.5681 33.0101 5.76279
5733 5 28.5301 34.4501 5.63024
5690 3 30.5913 31.6466 3.65858
5780 2 32.5139 33.0588 3.61652
5732 5 30.4319 34.3927 3.66829
5731 2 30.6464 32.8726 5.70353
5771 3 32.8509 31.7974 5.61414
5781 5 32.6108 34.4959 5.56272
7567 3 34.6252 31.8374 3.6165
7571 1 36.7622 31.8414 5.31847
7598 4 34.6304 33.2644 5.73117
7603 5 36.6043 34.3615 5.02776
7570 2 38.7453 31.8055 3.67796
7601 4 38.7116 33.2813 5.73284
7639 2 40.5998 31.7033 5.56974
7657 4 40.6941 33.136 3.473
7660 5 40.7321 34.4261 5.66946
7659 3 42.5401 34.4068 3.57293
7638 2 42.6887 31.7308 3.69536
7658 4 42.6555 33.0098 5.65265
1706 4 2.13906 35.8667 5.69002
1707 2 1.9039 37.1844 3.79253
1708 1 0.115301 37.2606 5.66909
1705 5 -0.203149 35.6786 3.62524
1709 5 3.9994 35.8496 3.85872
1710 4 6.10339 35.82 5.66864
1711 2 6.09229 37 3.67329
1712 2 4.18562 37.1125 5.91222
1772 2 10.1606 37.1838 3.49554
1770 4 8.05386 35.6872 3.49231
1771 4 10.0372 35.7456 5.50542
1773 2 8.15666 37.0809 5.54137
3583 4 12.155 35.7146 3.5187
3585 2 14.243 37.088 3.50022
3584 4 14.2227 35.6849 5.62396
3586 2 12.1518 37.05 5.49165
3651 5 16.2338 37.1101 5.52873
3650 2 18.1684 37.2533 3.54219
3649 3 18.3928 35.922 5.55495
3653 5 20.4875 37.2493 5.64999
5734 3 24.353 35.7133 3.68278
5661 5 22.5074 37.2573 3.67166
5660 3 22.3441 35.7667 5.60297
5737 5 24.4975 37.2105 5.44504
5736 1 26.4358 37.2444 3.56541
5738 3 28.5964 35.9342 3.80224
5735 4 26.5189 35.8685 5.64518
5741 2 28.6104 37.2381 5.68698
5740 2 30.4472 37.2002 3.70658
5782 4 32.5231 35.7614 3.51184
5739 3 30.5821 35.7888 5.652
5783 5 32.4664 37.3408 5.4539
7606 4 36.4023 36.1944 3.57381
7605 3 34.5439 37.2577 3.63678
7604 2 34.7162 35.9132 5.57809
7609 3 36.7926 37.5865 5.51301
7618 2 36.7429 35.8101 7.13043
7607 4 38.5894 35.8634 5.484
7608 5 38.6364 37.4225 3.65518
7664 3 40.4617 37.1205 5.69675
7663 3 42.4068 37.1655 3.60645
7662 4 42.6428 36.0657 5.6918
50 4 2.17456 -0.0514653 9.8074
51 3 2.06704 1.15269 7.70511
52 2 0.0450207 1.2325 9.66863
57 5 0.13207 2.7594 7.67056
58 4 2.14643 2.52734 9.8339
49 5 0.0453003 -0.348007 7.7677
53 5 4.16145 -0.207112 7.83911
54 4 6.24355 -0.178578 9.95877
55 2 6.1911 1.09292 7.74684
56 2 4.23654 1.25734 9.89765
61 5 4.00279 2.58376 7.85632
62 4 6.17848 2.58046 9.85951
125 2 10.1755 1.04451 7.51981
126 2 8.1652 1.1934 9.68528
127 3 8.17603 2.42091 7.65629
128 3 10.2278 2.57282 9.60753
124 4 10.2247 -0.289905 9.58107
123 4 8.14948 -0.240676 7.60172
2211 3 14.2338 1.00037 7.63256
2212 1 12.3408 1.13156 9.64735
2213 5 12.1005 2.49896 7.6008
2214 5 14.5651 2.41627 9.76077
2210 4 14.5139 -0.256006 9.66118
2209 4 12.051 -0.213403 7.43433
2270 4 16.2489 -0.240941 7.64915
2273 3 16.5025 1.13739 9.73541
2276 5 16.2169 2.5398 7.60356
2272 2 18.3263 1.04322 7.51544
2277 5 18.494 2.55057 9.65472
2271 4 18.6406 -0.0655039 9.68505
2274 4 20.5097 -0.157294 7.71468
2275 2 20.5646 1.2385 9.60028
2280 3 20.3839 2.71813 7.5953
4019 3 22.3636 2.8471 9.8247
4085 2 24.5663 2.63269 7.56682
4018 5 22.5084 1.26593 7.78705
4077 4 24.4155 -0.187577 7.65144
4080 5 24.4583 1.4019 9.61054
4017 3 22.5031 -0.271486 9.76883
4078 2 26.5756 0.155791 9.66074
4079 3 26.535 1.19238 7.71745
4081 4 28.6447 -0.0682963 7.72959
4084 5 28.7511 1.21956 9.79034